# vtk DataFile Version 5.1
vtk output
ASCII
DATASET POLYDATA
POINTS 2 float
0.30641 39.6536 12.9868 0.35007 39.9588 13.3461 
POINT_DATA 2
FIELD FieldData 3
haloID 1 2 float
80 82 
time 1 2 float
12 12 
scale 1 2 float
0.12 0.12 
