# vtk DataFile Version 5.1
vtk output
ASCII
DATASET POLYDATA
POINTS 3 float
0.40244 39.726 13.1978 0.33828 39.8616 12.1109 1.7738 40.0474 14.9943 

POINT_DATA 3
FIELD FieldData 3
haloID 1 3 float
2027 2028 2029 
time 1 3 float
15 15 15 
scale 1 3 float
0.15 0.15 0.15 
