# vtk DataFile Version 5.1
vtk output
ASCII
DATASET POLYDATA
POINTS 4 float
0.43857 39.5813 13.1106 0.3451 39.7499 12.3312 0.84205 39.7734 13.8737 
61.9185 37.5707 12.0342 
POINT_DATA 4
FIELD FieldData 3
haloID 1 4 float
7253 7254 7255 7256 
time 1 4 float
18 18 18 18 
scale 1 4 float
0.18 0.18 0.18 0.18 
