# vtk DataFile Version 5.1
vtk output
ASCII
DATASET POLYDATA
POINTS 7 float
0.43778 39.509 13.1017 0.35386 39.6848 12.4152 0.84956 39.7194 13.8187 
0.81319 37.9705 12.7944 61.772 38.7694 12.6545 1.55956 39.8382 14.8389 
1.43221 39.7284 14.4715 
POINT_DATA 7
FIELD FieldData 3
haloID 1 7 float
9922 9923 9924 9925 9926 9927 9928 
time 1 7 float
19 19 19 19 19 19 19 
scale 1 7 float
0.19 0.19 0.19 0.19 0.19 0.19 0.19 
