# vtk DataFile Version 5.1
vtk output
ASCII
DATASET POLYDATA
POINTS 10 float
0.46884 39.4023 12.9793 0.4104 39.4488 12.748 0.98925 39.8471 13.1434 
0.68317 38.1389 12.847 62.0646 38.7492 12.6444 1.46451 39.7441 14.6266 
1.59187 39.8922 15.5271 1.35479 39.361 16.4668 1.36269 37.5414 14.9669 
61.6414 37.2962 10.608 
POINT_DATA 10
FIELD FieldData 3
haloID 1 10 float
20664 20665 20666 20667 20668 20669 20670 20671 20672 
20673 
time 1 10 float
22 22 22 22 22 22 22 22 22 
22 
scale 1 10 float
0.22 0.22 0.22 0.22 0.22 0.22 0.22 0.22 0.22 
0.22 
