# vtk DataFile Version 5.1
vtk output
ASCII
DATASET POLYDATA
POINTS 10 float
0.48592 39.3413 12.9476 0.43475 39.4099 12.8399 0.91262 39.7804 13.1758 
0.66192 38.1683 12.8642 62.1857 38.7522 12.6367 1.44643 39.7342 14.6109 
1.59365 39.8735 15.4544 1.36607 39.3679 16.3979 1.36109 37.562 14.9685 
61.6467 37.2938 10.6171 
POINT_DATA 10
FIELD FieldData 3
haloID 1 10 float
25155 25156 25157 25158 25160 25162 25163 25164 25165 
25166 
time 1 10 float
23 23 23 23 23 23 23 23 23 
23 
scale 1 10 float
0.23 0.23 0.23 0.23 0.23 0.23 0.23 0.23 0.23 
0.23 
