# vtk DataFile Version 5.1
vtk output
ASCII
DATASET POLYDATA
POINTS 11 float
0.47431 39.326 12.9146 0.81762 39.6996 13.214 0.6123 38.2594 12.8862 
0.51899 38.2064 13.5682 62.2747 38.778 12.639 1.12976 38.2582 14.2698 
1.4198 39.7236 14.5875 1.60533 39.8505 15.4113 1.36324 39.3873 16.3038 
1.38175 37.6044 14.9731 61.6504 37.3098 10.5951 
POINT_DATA 11
FIELD FieldData 3
haloID 1 11 float
30038 30039 30040 30041 30042 30044 30045 30046 30047 
30048 30049 
time 1 11 float
24 24 24 24 24 24 24 24 24 
24 24 
scale 1 11 float
0.24 0.24 0.24 0.24 0.24 0.24 0.24 0.24 0.24 
0.24 0.24 
