# vtk DataFile Version 5.1
vtk output
ASCII
DATASET POLYDATA
POINTS 11 float
0.53736 39.2593 13.0125 0.53693 38.3549 12.9057 0.60775 38.3224 13.4467 
0.06014 38.7809 12.6259 0.3448 38.3404 11.9986 1.10897 38.3003 14.2246 
1.3871 39.7143 14.5251 1.60805 39.8156 15.2542 1.35486 39.3585 16.2238 
1.38585 37.6208 14.8888 61.7256 37.2874 10.7282 
POINT_DATA 11
FIELD FieldData 3
haloID 1 11 float
40938 40939 40940 40941 40942 40943 40944 40945 40946 
40947 40948 
time 1 11 float
26 26 26 26 26 26 26 26 26 
26 26 
scale 1 11 float
0.26 0.26 0.26 0.26 0.26 0.26 0.26 0.26 0.26 
0.26 0.26 
