# vtk DataFile Version 5.1
vtk output
ASCII
DATASET POLYDATA
POINTS 13 float
0.63952 39.0734 13.0437 0.44256 39.0642 12.9431 0.69065 39.0011 13.0326 
0.73573 39.0631 13.0532 0.24321 38.3973 12.4762 1.14912 38.3707 13.9858 
1.26635 39.6521 14.3905 1.49024 39.6544 14.7207 0.76086 39.6681 13.7712 
1.41122 39.4032 15.7961 1.40035 37.7479 14.7989 61.8774 37.311 11.0296 
62.0701 37.716 11.0355 
POINT_DATA 13
FIELD FieldData 3
haloID 1 13 float
81553 81554 81555 81556 81558 81559 81561 81562 81563 
81564 81565 81566 81567 
time 1 13 float
32 32 32 32 32 32 32 32 32 
32 32 32 32 
scale 1 13 float
0.32 0.32 0.32 0.32 0.32 0.32 0.32 0.32 0.32 
0.32 0.32 0.32 0.32 
