# vtk DataFile Version 5.1
vtk output
ASCII
DATASET POLYDATA
POINTS 13 float
0.68153 39.0198 13.0452 0.67265 39.0807 12.9484 0.74496 39.1303 13.1594 
0.24502 38.4124 12.5774 1.11403 38.4424 14.0365 0.68333 38.1446 13.3936 
1.25055 39.5912 14.3896 1.45455 39.6354 14.6475 0.41681 40.1612 14.0282 
1.43412 39.406 15.7079 1.42461 37.777 14.7807 61.9062 37.3221 11.1097 
62.2667 38.2337 11.1753 
POINT_DATA 13
FIELD FieldData 3
haloID 1 13 float
89264 89265 89266 89268 89269 89270 89271 89272 89273 
89274 89276 89277 89278 
time 1 13 float
33 33 33 33 33 33 33 33 33 
33 33 33 33 
scale 1 13 float
0.33 0.33 0.33 0.33 0.33 0.33 0.33 0.33 0.33 
0.33 0.33 0.33 0.33 
