# vtk DataFile Version 5.1
vtk output
ASCII
DATASET POLYDATA
POINTS 12 float
0.69533 38.9539 13.0359 0.59903 39.1294 13.2406 0.27075 38.4295 12.6861 
1.12094 38.4726 13.9116 0.13837 38.395 12.5072 1.24552 39.5699 14.3646 
1.41021 39.601 14.5397 0.50395 40.0926 13.996 1.38755 39.4377 15.6686 
1.39506 37.7684 14.7358 61.9246 37.3386 11.1685 62.2855 38.1898 11.2517 

POINT_DATA 12
FIELD FieldData 3
haloID 1 12 float
97105 97106 97108 97109 97110 97111 97112 97113 97114 
97116 97118 97119 
time 1 12 float
34 34 34 34 34 34 34 34 34 
34 34 34 
scale 1 12 float
0.34 0.34 0.34 0.34 0.34 0.34 0.34 0.34 0.34 
0.34 0.34 0.34 
