# vtk DataFile Version 5.1
vtk output
ASCII
DATASET POLYDATA
POINTS 12 float
0.71647 38.9394 13.0471 0.28327 38.4602 12.7633 1.11504 38.5022 13.865 
0.11625 38.4649 12.5626 1.22555 39.498 14.3592 1.35012 39.5523 14.4166 
0.63243 39.9619 13.9327 1.42943 39.4318 15.5396 1.40426 37.8131 14.7403 
0.2087 38.505 11.9649 61.9358 37.3354 11.193 62.2918 38.1582 11.3395 

POINT_DATA 12
FIELD FieldData 3
haloID 1 12 float
105195 105196 105197 105198 105199 105200 105201 105202 105204 
105205 105206 105208 
time 1 12 float
35 35 35 35 35 35 35 35 35 
35 35 35 
scale 1 12 float
0.35 0.35 0.35 0.35 0.35 0.35 0.35 0.35 0.35 
0.35 0.35 0.35 
