# vtk DataFile Version 5.1
vtk output
ASCII
DATASET POLYDATA
POINTS 12 float
0.75083 38.9298 13.0623 0.29885 38.4877 12.851 1.09155 38.551 13.8226 
0.45254 38.0132 11.9823 1.26421 39.5315 14.3598 1.22354 39.5106 14.2941 
0.7199 39.8994 13.9183 1.40656 39.4288 15.5285 1.39269 37.8237 14.7243 
0.27448 38.451 12.0358 61.9626 37.3628 11.2804 0.3366 38.0864 11.4552 

POINT_DATA 12
FIELD FieldData 3
haloID 1 12 float
113465 113466 113467 113468 113469 113470 113471 113472 113474 
113475 113476 113478 
time 1 12 float
36 36 36 36 36 36 36 36 36 
36 36 36 
scale 1 12 float
0.36 0.36 0.36 0.36 0.36 0.36 0.36 0.36 0.36 
0.36 0.36 0.36 
