# vtk DataFile Version 5.1
vtk output
ASCII
DATASET POLYDATA
POINTS 12 float
0.74543 38.9076 13.0808 0.33596 38.5352 12.9379 1.05367 38.638 13.8076 
62.4592 37.9984 12.0177 1.27893 39.5235 14.3262 1.12932 39.4841 14.2364 
0.79273 39.8404 13.8962 1.41814 39.4398 15.3809 1.36388 37.8169 14.6561 
0.33646 38.3917 12.1235 62.0066 37.3362 11.3426 62.3438 38.0686 11.4834 

POINT_DATA 12
FIELD FieldData 3
haloID 1 12 float
121883 121884 121885 121886 121887 121888 121889 121890 121891 
121892 121893 121894 
time 1 12 float
37 37 37 37 37 37 37 37 37 
37 37 37 
scale 1 12 float
0.37 0.37 0.37 0.37 0.37 0.37 0.37 0.37 0.37 
0.37 0.37 0.37 
