# vtk DataFile Version 5.1
vtk output
ASCII
DATASET POLYDATA
POINTS 12 float
0.75335 38.8947 13.1085 0.38321 38.5872 13.0147 1.0348 38.6942 13.7481 
0.00817 37.9204 12.1837 1.26499 39.4809 14.2753 1.08211 39.4717 14.1813 
0.90593 39.7483 13.8435 1.43043 39.4408 15.3103 1.37495 37.8317 14.6359 
62.4181 38.0676 12.4075 62.0455 37.3587 11.4365 62.2721 38.0476 11.6032 

POINT_DATA 12
FIELD FieldData 3
haloID 1 12 float
130371 130372 130373 130374 130375 130376 130377 130378 130379 
130380 130381 130382 
time 1 12 float
38 38 38 38 38 38 38 38 38 
38 38 38 
scale 1 12 float
0.38 0.38 0.38 0.38 0.38 0.38 0.38 0.38 0.38 
0.38 0.38 0.38 
