# vtk DataFile Version 5.1
vtk output
ASCII
DATASET POLYDATA
POINTS 11 float
0.82898 38.8962 13.1724 0.53972 38.7055 13.1736 0.98862 38.9026 13.6312 
0.0573 37.9106 12.3183 1.18745 39.3949 14.1535 1.08483 39.5434 13.7827 
1.4308 39.4378 15.1425 1.33305 37.8827 14.5964 0.25688 38.1157 12.1918 
0.54503 38.2177 12.4321 62.2799 37.9655 11.7927 
POINT_DATA 11
FIELD FieldData 3
haloID 1 11 float
147509 147510 147511 147512 147513 147514 147515 147516 147517 
147518 147519 
time 1 11 float
40 40 40 40 40 40 40 40 40 
40 40 
scale 1 11 float
0.4 0.4 0.4 0.4 0.4 0.4 0.4 0.4 0.4 
0.4 0.4 
