# vtk DataFile Version 5.1
vtk output
ASCII
DATASET POLYDATA
POINTS 10 float
0.88148 38.8441 13.2997 0.83559 38.9962 13.2192 0.22113 37.8779 12.655 
1.15362 39.2784 13.9978 1.30691 39.2344 13.7594 1.4429 39.3874 14.8558 
1.3421 37.9432 14.4851 0.38544 38.2785 12.3432 0.67704 38.0534 12.7345 
62.3268 37.7897 12.0505 
POINT_DATA 10
FIELD FieldData 3
haloID 1 10 float
174082 174083 174084 174085 174086 174087 174088 174089 174090 
174091 
time 1 10 float
43 43 43 43 43 43 43 43 43 
43 
scale 1 10 float
0.43 0.43 0.43 0.43 0.43 0.43 0.43 0.43 0.43 
0.43 
