# vtk DataFile Version 5.1
vtk output
ASCII
DATASET POLYDATA
POINTS 10 float
0.89774 38.8487 13.3487 0.81013 38.9612 13.1028 0.23871 37.8751 12.6876 
1.11622 39.2382 13.947 1.35252 39.1167 13.7658 1.42877 39.3856 14.7558 
1.32398 37.9723 14.4536 0.3968 38.2933 12.3594 0.70824 38.0343 12.7822 
62.3515 37.7501 12.1249 
POINT_DATA 10
FIELD FieldData 3
haloID 1 10 float
183093 183094 183095 183096 183097 183098 183099 183100 183101 
183102 
time 1 10 float
44 44 44 44 44 44 44 44 44 
44 
scale 1 10 float
0.44 0.44 0.44 0.44 0.44 0.44 0.44 0.44 0.44 
0.44 
