# vtk DataFile Version 5.1
vtk output
ASCII
DATASET POLYDATA
POINTS 10 float
0.90272 38.85 13.3814 0.78934 38.892 13.0329 62.4872 38.1924 12.7423 
1.07651 39.2025 13.8583 0.99821 39.2046 13.8638 1.43258 39.3423 14.6617 
1.3213 38.0047 14.4182 0.441 38.317 12.4048 0.75887 38.0524 12.9359 
62.3992 37.7029 12.1976 
POINT_DATA 10
FIELD FieldData 3
haloID 1 10 float
192137 192138 192139 192140 192141 192142 192143 192144 192145 
192146 
time 1 10 float
45 45 45 45 45 45 45 45 45 
45 
scale 1 10 float
0.45 0.45 0.45 0.45 0.45 0.45 0.45 0.45 0.45 
0.45 
