# vtk DataFile Version 5.1
vtk output
ASCII
DATASET POLYDATA
POINTS 9 float
0.93436 38.8501 13.4074 0.77293 38.8249 13.012 0.03039 38.2103 12.7802 
1.02891 39.158 13.7795 1.42619 39.3175 14.5604 1.32445 38.0355 14.3787 
0.46611 38.3407 12.461 0.32816 37.8601 12.8238 62.4172 37.6443 12.2878 

POINT_DATA 9
FIELD FieldData 3
haloID 1 9 float
201174 201175 201176 201177 201178 201179 201180 201182 201183 

time 1 9 float
46 46 46 46 46 46 46 46 46 

scale 1 9 float
0.46 0.46 0.46 0.46 0.46 0.46 0.46 0.46 0.46 

