# vtk DataFile Version 5.1
vtk output
ASCII
DATASET POLYDATA
POINTS 10 float
0.93982 38.8849 13.4715 0.77206 38.7589 13.0148 0.07729 38.2444 12.8225 
0.9917 39.1096 13.6855 1.40944 39.2853 14.464 1.32363 38.0802 14.3588 
0.49679 38.3617 12.5116 1.52928 40.3335 13.6425 62.345 37.606 12.3142 
62.4559 37.5913 12.3504 
POINT_DATA 10
FIELD FieldData 3
haloID 1 10 float
210279 210280 210281 210282 210283 210284 210285 210286 210287 
210288 
time 1 10 float
47 47 47 47 47 47 47 47 47 
47 
scale 1 10 float
0.47 0.47 0.47 0.47 0.47 0.47 0.47 0.47 0.47 
0.47 
