# vtk DataFile Version 5.1
vtk output
ASCII
DATASET POLYDATA
POINTS 9 float
0.95715 38.9031 13.5196 0.78265 38.7086 13.0389 0.17864 38.2872 12.8767 
0.95923 39.0262 13.5648 1.39504 39.2643 14.3415 1.30413 38.1082 14.3135 
0.5109 38.3667 12.5835 1.49348 40.1767 13.6288 62.3399 37.655 12.336 

POINT_DATA 9
FIELD FieldData 3
haloID 1 9 float
219418 219419 219420 219421 219423 219424 219425 219426 219427 

time 1 9 float
48 48 48 48 48 48 48 48 48 

scale 1 9 float
0.48 0.48 0.48 0.48 0.48 0.48 0.48 0.48 0.48 

