# vtk DataFile Version 5.1
vtk output
ASCII
DATASET POLYDATA
POINTS 8 float
1.01003 38.878 13.6008 0.46992 38.4215 13.1009 0.9914 38.6592 13.4611 
1.16046 38.9865 13.6453 1.26172 38.3316 14.1282 0.68865 38.5152 12.9296 
1.52979 39.8278 13.7874 0.1349 37.3489 12.6625 
POINT_DATA 8
FIELD FieldData 3
haloID 1 8 float
265419 265420 265421 265422 265423 265424 265425 265426 
time 1 8 float
53 53 53 53 53 53 53 53 
scale 1 8 float
0.53 0.53 0.53 0.53 0.53 0.53 0.53 0.53 
