# vtk DataFile Version 5.1
vtk output
ASCII
DATASET POLYDATA
POINTS 8 float
1.0225 38.8306 13.6071 0.57385 38.4511 13.1517 0.99196 38.6584 13.4739 
1.06459 38.8798 13.4865 1.24252 38.4045 14.0547 0.72083 38.5348 13.0337 
1.54701 39.7522 13.7162 0.12594 37.4283 12.7308 
POINT_DATA 8
FIELD FieldData 3
haloID 1 8 float
274667 274668 274669 274670 274671 274672 274673 274674 
time 1 8 float
54 54 54 54 54 54 54 54 
scale 1 8 float
0.54 0.54 0.54 0.54 0.54 0.54 0.54 0.54 
