# vtk DataFile Version 5.1
vtk output
ASCII
DATASET POLYDATA
POINTS 7 float
1.03013 38.7194 13.5688 1.04188 38.793 13.6135 0.82839 38.6083 13.3279 
1.18512 38.5119 13.9481 0.81831 38.5805 13.2834 1.54252 39.5602 13.7543 
0.21519 37.3392 12.838 
POINT_DATA 7
FIELD FieldData 3
haloID 1 7 float
293148 293149 293150 293152 293153 293154 293155 
time 1 7 float
56 56 56 56 56 56 56 
scale 1 7 float
0.56 0.56 0.56 0.56 0.56 0.56 0.56 
