# vtk DataFile Version 5.1
vtk output
ASCII
DATASET POLYDATA
POINTS 7 float
1.02591 38.6977 13.553 1.09154 38.8166 13.648 0.76054 38.4655 13.3223 
1.16542 38.5838 13.8558 0.90106 38.6232 13.4048 1.53418 39.4588 13.772 
0.23534 37.3236 12.8861 
POINT_DATA 7
FIELD FieldData 3
haloID 1 7 float
302403 302404 302405 302408 302409 302410 302411 
time 1 7 float
57 57 57 57 57 57 57 
scale 1 7 float
0.57 0.57 0.57 0.57 0.57 0.57 0.57 
