# vtk DataFile Version 5.1
vtk output
ASCII
DATASET POLYDATA
POINTS 5 float
1.05233 38.687 13.607 1.05671 38.776 13.5918 1.15102 38.7473 13.7178 
1.50193 39.2421 13.8031 0.27871 37.2608 12.9589 
POINT_DATA 5
FIELD FieldData 3
haloID 1 5 float
320879 320881 320882 320883 320884 
time 1 5 float
59 59 59 59 59 
scale 1 5 float
0.59 0.59 0.59 0.59 0.59 
