# vtk DataFile Version 5.1
vtk output
ASCII
DATASET POLYDATA
POINTS 5 float
1.07893 38.6879 13.6397 1.00517 38.8054 13.436 1.25506 38.8291 13.7708 
1.47365 39.1198 13.8158 0.34639 37.2135 12.8784 
POINT_DATA 5
FIELD FieldData 3
haloID 1 5 float
330068 330070 330071 330072 330073 
time 1 5 float
60 60 60 60 60 
scale 1 5 float
0.6 0.6 0.6 0.6 0.6 
