# vtk DataFile Version 5.1
vtk output
ASCII
DATASET POLYDATA
POINTS 5 float
1.10132 38.6883 13.6489 0.96115 38.8214 13.3149 1.32889 38.8809 13.8024 
1.44598 39.0039 13.8221 0.37404 37.2056 12.9082 
POINT_DATA 5
FIELD FieldData 3
haloID 1 5 float
339221 339225 339226 339227 339228 
time 1 5 float
61 61 61 61 61 
scale 1 5 float
0.61 0.61 0.61 0.61 0.61 
