# vtk DataFile Version 5.1
vtk output
ASCII
DATASET POLYDATA
POINTS 5 float
1.1076 38.6645 13.6523 0.93828 38.8138 13.2347 1.36715 38.899 13.818 
1.40671 38.879 13.8365 0.40129 37.2001 12.9375 
POINT_DATA 5
FIELD FieldData 3
haloID 1 5 float
348357 348360 348361 348362 348363 
time 1 5 float
62 62 62 62 62 
scale 1 5 float
0.62 0.62 0.62 0.62 0.62 
