# vtk DataFile Version 5.1
vtk output
ASCII
DATASET POLYDATA
POINTS 4 float
1.09164 38.6302 13.6223 1.42959 38.9391 13.8308 1.24015 38.6196 13.8012 
0.45782 37.1469 12.9429 
POINT_DATA 4
FIELD FieldData 3
haloID 1 4 float
366572 366573 366575 366576 
time 1 4 float
64 64 64 64 
scale 1 4 float
0.64 0.64 0.64 0.64 
