# vtk DataFile Version 5.1
vtk output
ASCII
DATASET POLYDATA
POINTS 2 float
1.12062 38.5439 13.64 0.53127 37.1923 13.0695 
POINT_DATA 2
FIELD FieldData 3
haloID 1 2 float
393660 393662 
time 1 2 float
67 67 
scale 1 2 float
0.67 0.67 
