# vtk DataFile Version 5.1
vtk output
ASCII
DATASET POLYDATA
POINTS 2 float
1.10867 38.5166 13.6303 0.57171 37.1968 13.1099 
POINT_DATA 2
FIELD FieldData 3
haloID 1 2 float
402646 402648 
time 1 2 float
68 68 
scale 1 2 float
0.68 0.68 
