# vtk DataFile Version 5.1
vtk output
ASCII
DATASET POLYDATA
POINTS 2 float
1.11626 38.4407 13.641 0.61753 37.2128 13.1655 
POINT_DATA 2
FIELD FieldData 3
haloID 1 2 float
420659 420662 
time 1 2 float
70 70 
scale 1 2 float
0.7 0.7 
