# vtk DataFile Version 5.1
vtk output
ASCII
DATASET POLYDATA
POINTS 2 float
1.12799 38.4333 13.6543 0.64757 37.2222 13.1934 
POINT_DATA 2
FIELD FieldData 3
haloID 1 2 float
429631 429633 
time 1 2 float
71 71 
scale 1 2 float
0.71 0.71 
