# vtk DataFile Version 5.1
vtk output
ASCII
DATASET POLYDATA
POINTS 2 float
1.1303 38.3549 13.6851 0.72834 37.2674 13.2898 
POINT_DATA 2
FIELD FieldData 3
haloID 1 2 float
456263 456264 
time 1 2 float
74 74 
scale 1 2 float
0.74 0.74 
