# vtk DataFile Version 5.1
vtk output
ASCII
DATASET POLYDATA
POINTS 2 float
1.12159 38.3101 13.6792 0.75831 37.2892 13.3237 
POINT_DATA 2
FIELD FieldData 3
haloID 1 2 float
465060 465061 
time 1 2 float
75 75 
scale 1 2 float
0.75 0.75 
