# vtk DataFile Version 5.1
vtk output
ASCII
DATASET POLYDATA
POINTS 1 float
1.02227 37.9154 13.6183 
POINT_DATA 1
FIELD FieldData 3
haloID 1 1 float
559826 
time 1 1 float
86 
scale 1 1 float
0.86 
