# vtk DataFile Version 5.1
vtk output
ASCII
DATASET POLYDATA
POINTS 2 float
1.01715 37.887 13.6146 1.88609 37.2029 14.1489 
POINT_DATA 2
FIELD FieldData 3
haloID 1 2 float
568286 568287 
time 1 2 float
87 87 
scale 1 2 float
0.87 0.87 
