# vtk DataFile Version 5.1
vtk output
ASCII
DATASET POLYDATA
POINTS 2 float
1.06038 37.7408 13.6092 1.29686 37.2902 13.6782 
POINT_DATA 2
FIELD FieldData 3
haloID 1 2 float
643463 643465 
time 1 2 float
96 96 
scale 1 2 float
0.96 0.96 
