# vtk DataFile Version 5.1
vtk output
ASCII
DATASET POLYDATA
POINTS 1 float
1.07777 37.706 13.6204 
POINT_DATA 1
FIELD FieldData 3
haloID 1 1 float
660107 
time 1 1 float
98 
scale 1 1 float
0.98 
