# vtk DataFile Version 5.1
vtk output
ASCII
DATASET POLYDATA
POINTS 12 float
0.78875 38.8966 13.1365 0.41937 38.6035 13.1123 1.00776 38.7391 13.6643 
62.4194 38.0929 12.4582 1.23905 39.4254 14.2243 1.06853 39.4437 14.1307 
1.00285 39.6638 13.8236 1.44021 39.4483 15.1722 1.35233 37.8529 14.6399 
0.24914 38.1168 12.1454 0.52735 38.2424 12.3935 62.2662 38.0114 11.7049 

POINT_DATA 12
FIELD FieldData 3
haloID 1 12 float
138836 138837 138838 138839 138840 138841 138842 138843 138844 
138845 138846 138847 
time 1 12 float
39 39 39 39 39 39 39 39 39 
39 39 39 
scale 1 12 float
0.39 0.39 0.39 0.39 0.39 0.39 0.39 0.39 0.39 
0.39 0.39 0.39 
