# vtk DataFile Version 5.1
vtk output
ASCII
DATASET POLYDATA
POINTS 11 float
0.85927 38.8761 13.2353 0.64253 38.7799 13.2478 0.95759 38.9931 13.5179 
0.51002 37.319 12.1586 1.16393 39.347 14.1205 1.16923 39.4243 13.7609 
1.41465 39.4371 15.0247 1.35223 37.8937 14.5533 0.30636 38.1551 12.245 
0.58852 38.1378 12.549 62.3006 37.915 11.8786 
POINT_DATA 11
FIELD FieldData 3
haloID 1 11 float
156276 156277 156278 156279 156280 156281 156282 156283 156284 
156285 156286 
time 1 11 float
41 41 41 41 41 41 41 41 41 
41 41 
scale 1 11 float
0.41 0.41 0.41 0.41 0.41 0.41 0.41 0.41 0.41 
0.41 0.41 
