# vtk DataFile Version 5.1
vtk output
ASCII
DATASET POLYDATA
POINTS 12 float
0.49636 39.2847 12.9425 0.70978 39.592 13.2336 0.55396 38.3105 12.9072 
0.56667 38.2664 13.5147 62.425 38.7982 12.6438 0.37719 38.336 11.9218 
1.1465 38.2727 14.2729 1.40033 39.7133 14.5748 1.61083 39.8346 15.3314 
1.37764 39.3685 16.2292 1.38711 37.6177 14.9438 61.6931 37.2889 10.6079 

POINT_DATA 12
FIELD FieldData 3
haloID 1 12 float
35317 35318 35319 35320 35321 35322 35323 35324 35325 
35326 35327 35328 
time 1 12 float
25 25 25 25 25 25 25 25 25 
25 25 25 
scale 1 12 float
0.25 0.25 0.25 0.25 0.25 0.25 0.25 0.25 0.25 
0.25 0.25 0.25 
