# vtk DataFile Version 5.1
vtk output
ASCII
DATASET POLYDATA
POINTS 2 float
1.06413 37.7265 13.612 1.23006 37.3144 13.6316 
POINT_DATA 2
FIELD FieldData 3
haloID 1 2 float
651779 651780 
time 1 2 float
97 97 
scale 1 2 float
0.97 0.97 
