# vtk DataFile Version 5.1
vtk output
ASCII
DATASET POLYDATA
POINTS 2 float
1.10537 38.2123 13.671 0.817 37.3418 13.3891 
POINT_DATA 2
FIELD FieldData 3
haloID 1 2 float
482486 482487 
time 1 2 float
77 77 
scale 1 2 float
0.77 0.77 
