# vtk DataFile Version 5.1
vtk output
ASCII
DATASET POLYDATA
POINTS 8 float
0.45004 39.4786 13.0497 0.38501 39.6176 12.49 0.85439 39.6917 13.7636 
0.77047 38.0178 12.8039 61.8611 38.7634 12.6471 1.52741 39.7743 14.7875 
1.56574 39.9226 15.6624 1.34306 37.4787 15.0153 
POINT_DATA 8
FIELD FieldData 3
haloID 1 8 float
13018 13019 13020 13021 13022 13023 13024 13026 
time 1 8 float
20 20 20 20 20 20 20 20 
scale 1 8 float
0.2 0.2 0.2 0.2 0.2 0.2 0.2 0.2 
