# vtk DataFile Version 5.1
vtk output
ASCII
DATASET POLYDATA
POINTS 2 float
1.10783 38.4676 13.6257 0.59782 37.1328 13.1258 
POINT_DATA 2
FIELD FieldData 3
haloID 1 2 float
411663 411666 
time 1 2 float
69 69 
scale 1 2 float
0.69 0.69 
