# vtk DataFile Version 5.1
vtk output
ASCII
DATASET POLYDATA
POINTS 1 float
1.08921 37.6816 13.632 
POINT_DATA 1
FIELD FieldData 3
haloID 1 1 float
668476 
time 1 1 float
99 
scale 1 1 float
0.99 
