# vtk DataFile Version 5.1
vtk output
ASCII
DATASET POLYDATA
POINTS 12 float
0.58984 39.2582 13.0374 0.50217 38.4044 12.9346 0.61722 38.3637 13.4135 
0.21169 38.8075 12.6487 0.3307 38.3764 12.0795 1.17368 38.2785 14.2112 
1.36849 39.6914 14.5235 1.6193 39.7793 15.1844 1.373 39.3957 16.1083 
1.39055 37.6583 14.8963 61.7488 37.2973 10.7653 61.9314 37.8819 10.8131 

POINT_DATA 12
FIELD FieldData 3
haloID 1 12 float
46911 46912 46913 46914 46915 46916 46917 46918 46919 
46920 46921 46922 
time 1 12 float
27 27 27 27 27 27 27 27 27 
27 27 27 
scale 1 12 float
0.27 0.27 0.27 0.27 0.27 0.27 0.27 0.27 0.27 
0.27 0.27 0.27 
