# vtk DataFile Version 5.1
vtk output
ASCII
DATASET POLYDATA
POINTS 5 float
1.08812 38.6301 13.6296 0.89617 38.7703 13.1492 1.40739 38.9354 13.8203 
1.25181 38.7117 13.7726 0.43004 37.1892 12.961 
POINT_DATA 5
FIELD FieldData 3
haloID 1 5 float
357458 357459 357460 357461 357462 
time 1 5 float
63 63 63 63 63 
scale 1 5 float
0.63 0.63 0.63 0.63 0.63 
