# vtk DataFile Version 5.1
vtk output
ASCII
DATASET POLYDATA
POINTS 10 float
0.46615 39.4494 12.9878 0.35768 39.5118 12.6346 0.84743 39.6617 13.7174 
0.73509 38.0657 12.8221 61.9746 38.755 12.6541 1.54913 39.7854 14.7728 
1.60737 39.882 15.536 1.32478 39.3162 16.5694 1.35988 37.5371 14.9675 
61.6017 37.3008 10.5361 
POINT_DATA 10
FIELD FieldData 3
haloID 1 10 float
16602 16603 16604 16605 16606 16607 16608 16609 16610 
16611 
time 1 10 float
21 21 21 21 21 21 21 21 21 
21 
scale 1 10 float
0.21 0.21 0.21 0.21 0.21 0.21 0.21 0.21 0.21 
0.21 
