# vtk DataFile Version 5.1
vtk output
ASCII
DATASET POLYDATA
POINTS 12 float
0.65034 39.1714 13.1092 0.40916 38.7236 12.9545 0.70639 38.6264 13.2064 
0.60415 38.8847 12.7529 0.23861 38.2905 12.3264 1.17863 38.3277 14.1066 
1.31256 39.6821 14.4674 1.56271 39.7147 14.9049 1.40371 39.4127 15.9064 
1.41498 37.7044 14.8342 61.7993 37.3116 10.8999 61.9941 37.7792 10.8954 

POINT_DATA 12
FIELD FieldData 3
haloID 1 12 float
66874 66876 66877 66878 66879 66880 66881 66882 66883 
66884 66885 66886 
time 1 12 float
30 30 30 30 30 30 30 30 30 
30 30 30 
scale 1 12 float
0.3 0.3 0.3 0.3 0.3 0.3 0.3 0.3 0.3 
0.3 0.3 0.3 
