# vtk DataFile Version 5.1
vtk output
ASCII
DATASET POLYDATA
POINTS 3 float
0.42356 39.6194 13.1257 0.36018 39.8188 12.1635 1.57282 39.8373 14.7359 

POINT_DATA 3
FIELD FieldData 3
haloID 1 3 float
5061 5062 5063 
time 1 3 float
17 17 17 
scale 1 3 float
0.17 0.17 0.17 
