# vtk DataFile Version 5.1
vtk output
ASCII
DATASET POLYDATA
POINTS 2 float
1.08859 38.1305 13.6524 0.87402 37.414 13.4606 
POINT_DATA 2
FIELD FieldData 3
haloID 1 2 float
499818 499819 
time 1 2 float
79 79 
scale 1 2 float
0.79 0.79 
