# vtk DataFile Version 5.1
vtk output
ASCII
DATASET POLYDATA
POINTS 9 float
0.98259 38.9345 13.5618 0.79841 38.6542 13.0921 0.19822 38.2816 12.9238 
0.95125 38.8654 13.4808 1.37595 39.2081 14.2349 1.2977 38.1528 14.2768 
0.55673 38.4175 12.6317 1.50101 40.1377 13.6359 0.03288 37.4883 12.4988 

POINT_DATA 9
FIELD FieldData 3
haloID 1 9 float
228561 228562 228563 228564 228566 228567 228568 228569 228570 

time 1 9 float
49 49 49 49 49 49 49 49 49 

scale 1 9 float
0.49 0.49 0.49 0.49 0.49 0.49 0.49 0.49 0.49 

