# vtk DataFile Version 5.1
vtk output
ASCII
DATASET POLYDATA
POINTS 3 float
1.104 38.6112 13.6159 1.13955 38.4775 13.7405 0.47676 37.1454 12.9648 

POINT_DATA 3
FIELD FieldData 3
haloID 1 3 float
375656 375658 375659 
time 1 3 float
65 65 65 
scale 1 3 float
0.65 0.65 0.65 
