# vtk DataFile Version 5.1
vtk output
ASCII
DATASET POLYDATA
POINTS 2 float
1.0092 37.819 13.5929 1.62604 37.2059 13.9381 
POINT_DATA 2
FIELD FieldData 3
haloID 1 2 float
601882 601883 
time 1 2 float
91 91 
scale 1 2 float
0.91 0.91 
