# vtk DataFile Version 5.1
vtk output
ASCII
DATASET POLYDATA
POINTS 9 float
0.98938 38.9451 13.5868 0.79648 38.5826 13.1037 0.25924 38.3051 12.9666 
0.955 38.7407 13.4251 1.33764 39.1759 14.0982 1.30177 38.1817 14.2595 
0.58655 38.4365 12.7004 1.54885 40.0369 13.6479 0.04744 37.4676 12.5271 

POINT_DATA 9
FIELD FieldData 3
haloID 1 9 float
237742 237743 237744 237745 237746 237747 237748 237749 237750 

time 1 9 float
50 50 50 50 50 50 50 50 50 

scale 1 9 float
0.5 0.5 0.5 0.5 0.5 0.5 0.5 0.5 0.5 

