# vtk DataFile Version 5.1
vtk output
ASCII
DATASET POLYDATA
POINTS 12 float
0.65091 39.2139 13.1017 0.43463 38.6028 12.9564 0.68104 38.5309 13.2758 
0.49526 38.8758 12.709 0.29708 38.2817 12.2642 1.16886 38.2994 14.1559 
1.32235 39.6792 14.5192 1.58763 39.7434 15.0131 1.38411 39.4121 16.0128 
1.39995 37.7068 14.8949 61.7901 37.2886 10.8243 61.9956 37.8116 10.9254 

POINT_DATA 12
FIELD FieldData 3
haloID 1 12 float
59898 59900 59901 59902 59903 59904 59905 59906 59907 
59908 59909 59910 
time 1 12 float
29 29 29 29 29 29 29 29 29 
29 29 29 
scale 1 12 float
0.29 0.29 0.29 0.29 0.29 0.29 0.29 0.29 0.29 
0.29 0.29 0.29 
