# vtk DataFile Version 5.1
vtk output
ASCII
DATASET POLYDATA
POINTS 9 float
0.99392 38.9173 13.5981 0.81521 38.5514 13.1861 0.32417 38.331 13.0105 
0.96654 38.6825 13.4239 1.29605 39.1329 13.9504 1.28599 38.2165 14.2171 
0.62099 38.4684 12.7688 1.5149 39.9873 13.7043 0.05967 37.4293 12.5467 

POINT_DATA 9
FIELD FieldData 3
haloID 1 9 float
246920 246921 246922 246923 246924 246925 246926 246927 246928 

time 1 9 float
51 51 51 51 51 51 51 51 51 

scale 1 9 float
0.51 0.51 0.51 0.51 0.51 0.51 0.51 0.51 0.51 

