# vtk DataFile Version 5.1
vtk output
ASCII
DATASET POLYDATA
POINTS 11 float
0.87166 38.8624 13.2881 0.76473 38.8709 13.2979 0.88693 39.0151 13.3735 
62.4931 37.3378 12.1773 1.14721 39.3289 14.0572 1.24913 39.3572 13.7631 
1.44486 39.4081 14.9523 1.35246 37.9076 14.5365 0.3354 38.22 12.2615 
0.66292 38.0646 12.7014 62.3021 37.862 11.9724 
POINT_DATA 11
FIELD FieldData 3
haloID 1 11 float
165138 165139 165140 165141 165142 165143 165144 165145 165146 
165147 165148 
time 1 11 float
42 42 42 42 42 42 42 42 42 
42 42 
scale 1 11 float
0.42 0.42 0.42 0.42 0.42 0.42 0.42 0.42 0.42 
0.42 0.42 
