# vtk DataFile Version 5.1
vtk output
ASCII
DATASET POLYDATA
POINTS 2 float
1.0176 37.8074 13.6008 1.55066 37.2157 13.8742 
POINT_DATA 2
FIELD FieldData 3
haloID 1 2 float
610230 610231 
time 1 2 float
92 92 
scale 1 2 float
0.92 0.92 
