# vtk DataFile Version 5.1
vtk output
ASCII
DATASET POLYDATA
POINTS 2 float
1.05438 38.0577 13.6144 0.93031 37.4982 13.5342 
POINT_DATA 2
FIELD FieldData 3
haloID 1 2 float
517133 517135 
time 1 2 float
81 81 
scale 1 2 float
0.81 0.81 
