# vtk DataFile Version 5.1
vtk output
ASCII
DATASET POLYDATA
POINTS 6 float
1.03506 38.6856 13.5638 0.69119 38.3627 13.2825 1.11598 38.676 13.7512 
1.01257 38.6812 13.5842 1.52114 39.3467 13.7894 0.26504 37.2903 12.9264 

POINT_DATA 6
FIELD FieldData 3
haloID 1 6 float
311628 311629 311632 311633 311634 311635 
time 1 6 float
58 58 58 58 58 58 
scale 1 6 float
0.58 0.58 0.58 0.58 0.58 0.58 
