# vtk DataFile Version 5.1
vtk output
ASCII
DATASET POLYDATA
POINTS 12 float
0.62607 39.2309 13.0595 0.46182 38.4931 12.9497 0.66251 38.45 13.3408 
0.35211 38.8615 12.6585 0.3036 38.3601 12.1585 1.1679 38.2859 14.1717 
1.36989 39.6899 14.5563 1.59545 39.7638 15.1063 1.37169 39.3783 16.0531 
1.40697 37.6594 14.8949 61.7682 37.3068 10.7958 61.9689 37.8408 10.8797 

POINT_DATA 12
FIELD FieldData 3
haloID 1 12 float
53247 53248 53249 53250 53251 53252 53253 53254 53255 
53256 53257 53258 
time 1 12 float
28 28 28 28 28 28 28 28 28 
28 28 28 
scale 1 12 float
0.28 0.28 0.28 0.28 0.28 0.28 0.28 0.28 0.28 
0.28 0.28 0.28 
