# vtk DataFile Version 5.1
vtk output
ASCII
DATASET POLYDATA
POINTS 3 float
0.38435 39.6833 13.0703 0.32889 39.8424 12.1683 1.55276 39.837 14.8133 

POINT_DATA 3
FIELD FieldData 3
haloID 1 3 float
3331 3332 3333 
time 1 3 float
16 16 16 
scale 1 3 float
0.16 0.16 0.16 
