# vtk DataFile Version 5.1
vtk output
ASCII
DATASET POLYDATA
POINTS 1 float
1.08412 37.6521 13.6349 
POINT_DATA 1
FIELD FieldData 3
haloID 1 1 float
676638 
time 1 1 float
100 
scale 1 1 float
1 
