# vtk DataFile Version 5.1
vtk output
ASCII
DATASET POLYDATA
POINTS 2 float
1.12743 38.4173 13.6625 0.67054 37.2288 13.2207 
POINT_DATA 2
FIELD FieldData 3
haloID 1 2 float
438560 438562 
time 1 2 float
72 72 
scale 1 2 float
0.72 0.72 
