# vtk DataFile Version 5.1
vtk output
ASCII
DATASET POLYDATA
POINTS 12 float
0.65399 39.1263 13.0962 0.40231 38.883 12.9519 0.72948 38.7362 13.1225 
0.69635 38.9885 12.8862 0.25497 38.3285 12.4098 1.16674 38.3363 14.1084 
1.29142 39.6337 14.4083 1.521 39.6768 14.8336 1.39971 39.4049 15.8771 
1.40012 37.7333 14.8259 61.8697 37.3095 11.0129 62.0156 37.7579 10.9753 

POINT_DATA 12
FIELD FieldData 3
haloID 1 12 float
74101 74102 74103 74104 74106 74107 74108 74109 74111 
74112 74113 74114 
time 1 12 float
31 31 31 31 31 31 31 31 31 
31 31 31 
scale 1 12 float
0.31 0.31 0.31 0.31 0.31 0.31 0.31 0.31 0.31 
0.31 0.31 0.31 
