# vtk DataFile Version 5.1
vtk output
ASCII
DATASET POLYDATA
POINTS 8 float
1.03917 38.7752 13.5906 0.65922 38.4878 13.2212 1.00117 38.714 13.5433 
0.93586 38.7498 13.3826 1.21613 38.4481 14.0264 0.77953 38.5766 13.1492 
1.54665 39.6578 13.7356 0.19583 37.2971 12.7233 
POINT_DATA 8
FIELD FieldData 3
haloID 1 8 float
283897 283898 283899 283900 283901 283902 283903 283904 
time 1 8 float
55 55 55 55 55 55 55 55 
scale 1 8 float
0.55 0.55 0.55 0.55 0.55 0.55 0.55 0.55 
