# vtk DataFile Version 5.1
vtk output
ASCII
DATASET POLYDATA
POINTS 7497 float
58.9198 34.8262 50.7672 4.65367 42.8489 47.5089 41.4405 44.715 25.2828 
3.52141 57.2556 52.7601 52.6469 33.662 61.5384 6.21586 46.4775 16.9088 
49.4399 37.0025 33.2047 2.03415 32.0762 12.1229 15.7102 10.1424 28.0705 
28.5999 26.6844 53.4196 25.193 31.3414 13.3499 24.1119 24.7664 43.4391 
4.21766 61.0001 53.5936 4.19143 44.0292 13.109 23.8864 37.4928 5.39118 
53.9003 33.653 59.1498 15.2037 32.4952 42.7265 42.8406 37.4066 32.4016 
54.7464 36.4488 28.4862 1.08412 37.6521 13.6349 21.8516 37.3519 43.0997 
17.6582 53.5123 27.9233 46.8852 51.2649 16.9177 52.5666 52.7872 22.295 
37.2506 31.6965 19.3077 13.2007 49.2019 46.5875 8.02345 39.5272 33.6214 
0.47103 46.9958 30.5277 39.7663 58.6541 18.3214 40.9244 32.402 23.1393 
23.6448 38.9536 23.4523 0.63826 46.3435 10.3805 20.6613 17.5314 55.3756 
5.62174 0.08092 53.9386 52.7033 37.1151 56.0893 20.3184 15.2453 52.2278 
56.8978 41.119 20.6876 35.8587 31.4646 59.335 19.5016 20.2175 61.7148 
26.1313 24.5132 46.4217 4.60243 42.7798 47.5423 26.7633 7.8466 42.6866 
1.52875 47.1244 23.3082 0.93971 26.9878 44.2053 45.5972 36.8754 57.5419 
38.694 37.117 34.2215 16.8702 57.4841 29.4262 7.53896 34.9893 48.2784 
16.1018 6.85789 33.2158 19.5955 1.45395 23.9767 25.8667 26.343 44.3428 
60.1963 32.0621 15.3471 1.48896 34.2768 49.2704 10.5286 29.8388 50.1885 
14.8057 27.2323 59.2812 35.4944 43.2019 25.98 40.3979 56.0262 38.7692 
11.3581 47.4376 53.7794 11.6387 57.4115 31.1984 7.91672 45.9865 47.61 
27.7671 33.9352 48.0043 32.673 31.5148 18.7299 44.9855 1.53719 46.5435 
16.6526 17.6865 34.3478 51.2771 38.7505 24.5141 5.26342 32.5041 23.9715 
11.8608 28.6032 37.8121 17.971 52.6 38.4305 51.9582 37.0575 29.9181 
14.0036 30.931 16.0474 20.5702 17.2777 55.539 33.3921 33.8127 62.2275 
62.4772 47.6026 29.7477 52.7569 33.5002 60.7679 33.0395 6.31498 44.6981 
27.784 9.38912 45.1979 27.1343 43.925 39.5901 21.1204 55.3728 27.2926 
43.5747 55.9766 19.196 59.6106 45.0609 41.4119 47.7157 34.428 1.80691 
2.85532 9.73381 3.45435 0.80613 33.0815 11.8008 20.3135 53.4247 27.5886 
53.8556 57.7468 22.3736 30.3859 37.9169 40.5612 28.2473 8.7323 44.3613 
0.076 28.6956 5.98339 25.2135 29.4559 35.5454 19.5286 34.8965 43.2835 
20.8047 6.42029 38.1188 6.01727 42.1185 9.65067 10.0674 36.3394 40.0506 
46.5895 41.422 23.7981 13.0315 25.3593 36.7298 40.2431 32.5499 14.4541 
3.70259 47.5042 31.6237 20.3707 18.8177 58.6473 11.1478 34.7813 41.067 
19.2355 11.7139 50.5115 19.4634 22.2937 38.376 59.2614 40.6539 31.5573 
61.0838 31.1278 48.497 3.75955 44.8822 38.4853 8.56746 25.3891 39.7967 
9.5259 59.652 51.0455 46.9312 33.7429 61.9305 56.7776 43.747 41.6311 
13.428 3.91488 51.2639 23.1834 40.3049 11.0216 62.1173 43.2851 41.0361 
46.4809 50.9552 19.0294 26.0195 29.1743 40.9733 2.66184 45.9126 35.2948 
46.1507 4.43513 49.9951 16.3808 7.42292 51.0854 19.678 49.7606 40.1771 
4.68368 48.5562 49.7062 61.3454 48.6813 27.8044 9.92702 55.1199 28.4909 
20.4528 60.6885 24.9135 7.53374 26.7392 23.8242 2.16807 12.0844 61.457 
2.07254 45.2728 54.8372 53.4601 37.1349 55.474 34.1958 30.9856 58.5556 
23.0389 13.4277 0.81689 15.4084 7.33349 7.69997 10.952 32.1366 33.6487 
33.7018 31.9537 27.8414 50.5811 33.1928 21.7736 3.32504 50.8062 11.6399 
11.903 30.087 56.4302 35.0117 57.7241 33.5526 2.83121 44.3945 12.3538 
1.51705 42.0754 45.1874 31.6812 41.364 39.1801 0.84455 36.9345 13.3427 
11.3955 43.4581 14.745 56.1138 48.9543 51.4296 58.3449 47.6066 59.5591 
19.5465 22.9905 57.5346 25.4544 57.7333 46.5131 36.1285 59.6578 32.5876 
47.4608 47.2295 22.0843 50.1246 36.837 32.323 37.2339 36.9843 55.3345 
40.2127 34.3789 1.68927 12.5031 26.5525 36.903 18.3012 41.4752 21.4139 
22.6938 52.9289 27.5624 0.2989 18.4356 60.067 57.6762 38.5269 45.6661 
1.70586 31.873 11.7762 2.18723 43.4717 53.4316 20.5835 17.2126 40.3981 
51.7459 40.114 60.2761 2.64292 38.575 26.4154 43.1712 30.4361 17.1469 
35.3129 32.1645 27.2621 51.1667 36.6962 29.2181 57.4556 40.7818 22.1775 
2.49649 32.1858 14.1073 26.9049 34.3678 46.6449 5.69071 42.8265 59.8095 
17.8913 45 45.4161 26.8475 28.521 12.1539 11.2313 31.0493 49.3845 
20.2012 41.433 44.5067 59.853 24.0673 49.3847 16.6666 33.4762 32.2979 
54.7801 33.295 17.4462 47.4659 12.9511 5.27481 13.1609 19.7389 31.7986 
20.5609 9.52726 39.1327 8.26546 49.8377 48.9259 8.84786 61.3849 51.4563 
61.487 21.2197 60.0555 48.7435 51.7369 30.5674 61.7008 43.1614 38.7645 
20.0889 15.565 49.3098 45.1836 53.373 19.2506 4.98332 33.7983 48.9306 
45.3098 30.8084 18.1767 45.0614 55.5556 19.8014 45.3318 20.3176 50.5472 
1.65025 31.934 10.8042 52.7546 0.22036 57.6718 19.6279 54.4381 27.876 
48.8665 21.734 52.4545 32.6058 61.6371 18.6113 58.8578 38.2752 25.8391 
2.39965 13.2041 2.91231 62.2904 32.6852 14.1566 42.6587 7.03305 10.5572 
23.3249 43.7719 47.0234 21.5394 37.3279 3.91595 1.00897 48.7063 9.70726 
49.5984 56.2038 43.233 32.0105 35.9476 50.5714 22.6264 22.3834 56.5775 
16.4482 31.2562 45.1667 55.0286 6.84822 31.4444 56.5439 39.1549 43.6506 
49.2042 34.4697 57.3491 41.3315 17.9747 48.1691 13.4448 4.9162 32.3797 
6.00967 11.2925 2.36474 3.81613 44.3225 40.2138 41.4563 31.7029 19.4042 
25.0382 12.4124 46.2212 23.8485 12.8863 46.4864 16.2865 8.92072 7.65182 
56.0331 29.1735 17.0442 53.8006 21.009 15.096 53.9451 53.0703 22.7461 
14.815 59.3073 30.8471 21.6232 40.3305 22.1958 58.8751 46.2473 41.6165 
8.12804 10.235 60.9751 52.2619 38.3038 19.9071 11.9806 28.576 37.6985 
9.09742 48.252 47.8795 55.4549 47.3695 55.032 42.7622 37.2662 32.4646 
0.62889 57.4096 46.3105 44.0958 44.8699 23.3852 20.1541 15.1065 52.4586 
6.68376 41.7063 6.06676 53.7223 38.8257 38.9487 6.79413 0.30577 53.0029 
1.36649 34.1308 49.2608 36.9057 32.0768 52.6194 10.61 29.5976 50.4299 
47.8262 53.7569 32.0563 15.846 1.35162 30.1201 56.5442 46.1442 58.917 
6.10386 16.4317 0.84863 55.2537 33.0317 3.61657 48.8102 49.8138 15.5116 
44.9886 8.24718 49.0245 0.43385 47.814 24.423 51.3109 1.4447 56.1815 
9.63961 37.3066 38.6488 14.2193 27.7083 58.9225 37.2512 32.5034 59.7815 
62.4101 47.5851 28.4121 13.8456 32.3129 60.5398 60.6763 22.4765 57.2895 
37.5799 40.9076 39.4102 12.5528 48.858 54.1222 0.27072 46.4584 10.055 
39.5796 40.8723 39.1062 42.847 55.3044 16.9827 41.7239 37.3555 32.7067 
17.3797 19.8773 36.0244 4.67845 11.895 24.6297 4.94276 2.37206 52.0028 
16.1311 11.4543 5.54749 24.382 50.6951 28.6594 4.92171 42.6658 48.0132 
41.791 0.47856 14.0509 54.7881 30.3732 59.5086 43.7327 36.692 58.3206 
29.1898 34.0653 49.2517 59.3731 40.7806 27.0259 24.4228 31.1862 14.1329 
46.7851 51.3254 16.9551 14.1585 34.2613 1.07854 29.2614 43.4174 39.2209 
57.9482 26.3748 61.2162 6.08283 48.5076 15.366 37.145 47.1639 26.5569 
15.7776 9.92301 28.1888 17.0138 10.7798 9.29148 19.5361 29.3794 14.6811 
19.1878 15.0829 56.7753 46.7519 18.5034 52.0497 11.9835 49.9217 25.3888 
47.0495 57.8207 33.5418 11.5237 52.1225 31.1508 6.41178 49.6874 26.4464 
2.28287 44.6603 13.0472 27.0731 41.1674 25.2295 7.24218 47.8646 20.0588 
6.90673 29.0894 6.55728 62.022 28.8658 46.5763 59.986 41.632 32.057 
49.1181 34.3132 28.9282 57.6548 62.3461 62.1012 28.3156 52.4755 27.7397 
2.58263 19.7125 6.41965 27.0952 45.1218 25.7957 60.6262 50.9246 4.98413 
60.8331 49.8286 25.1503 21.424 7.02349 20.5998 61.4107 27.9686 1.42395 
42.1127 12.911 41.7289 58.6408 28.7592 60.151 32.4804 31.2729 55.1111 
50.2117 35.8252 37.8675 37.9953 32.7469 25.7658 37.3795 41.6509 48.2499 
23.7422 50.4982 26.6772 13.6529 34.6344 35.9468 28.0929 36.2035 1.41927 
58.5245 42.3788 54.8342 22.4949 21.741 59.4458 49.0472 50.9053 18.3549 
50.113 34.6688 2.70086 47.8159 33.7678 62.3489 49.4216 27.6271 50.8821 
21.482 37.2747 43.1487 44.0027 31.1319 18.5149 14.3817 27.7098 48.4758 
1.29221 37.6051 13.845 51.2298 35.601 40.8312 12.2698 49.1919 46.7658 
5.46577 42.958 10.8508 4.80344 42.641 46.5789 62.0451 44.7682 30.7453 
59.7083 28.4958 62.2306 46.7657 33.1675 43.2328 50.6544 36.3655 57.6762 
12.1697 29.9745 17.1216 15.8998 21.9496 36.1279 13.1682 34.0089 35.7256 
48.4542 34.3011 56.9472 51.8091 23.2931 53.6179 15.9655 59.4208 30.3146 
56.8305 37.5683 29.0793 26.2695 35.5808 24.2495 2.76613 43.9506 5.33127 
4.54814 34.0756 49.4809 22.0343 37.7147 24.5494 31.5943 58.3889 21.9459 
58.5557 25.3992 61.4408 42.5707 37.0636 32.9218 39.3662 36.9461 57.2442 
5.64481 32.4254 24.8203 30.2558 34.6769 3.55551 5.40613 45.8615 35.3427 
23.4146 0.56845 21.7953 0.24685 44.8994 15.8848 33.8336 60.1413 19.52 
59.6179 43.8304 54.5153 43.7936 32.9177 61.1018 46.4118 50.7637 18.9631 
42.5474 36.1062 60.8496 54.598 29.6252 4.36108 32.6157 51.1104 28.5129 
37.3543 31.4809 16.6218 2.31891 29.4461 43.0425 11.0164 47.0125 44.2956 
55.9755 6.27966 30.5151 40.7039 32.7331 54.1024 61.9813 60.4428 44.8624 
27.6485 25.2756 48.4065 33.6252 6.99487 46.6812 7.13406 30.6229 12.4605 
53.9122 33.6108 59.1208 60.1361 60.1325 43.8361 35.0863 14.5377 14.7832 
44.9633 10.0728 8.11207 15.1541 5.5934 52.7456 49.7665 56.1887 43.3401 
39.9646 31.8446 14.7671 49.959 36.4812 31.5933 35.3004 55.9351 18.5354 
24.8833 12.0341 57.773 7.43018 10.3916 24.1173 17.3784 40.1175 42.5061 
36.8385 31.576 19.1052 16.7636 33.1748 43.2081 58.9525 43.8772 9.97056 
17.5837 33.5209 45.8376 7.78757 35.5466 47.5441 50.9454 37.1782 31.4163 
6.01271 39.3902 8.0042 27.4243 30.4463 38.2442 36.391 54.648 38.9094 
14.5959 33.665 34.4238 35.8333 24.4026 9.23291 44.999 57.0941 41.4477 
60.3582 22.8696 57.1217 24.1041 24.7561 43.7227 33.0454 29.1954 59.4746 
13.3237 29.7465 51.7572 11.5555 53.8671 32.4082 41.9021 16.2882 42.3248 
56.4771 30.3357 35.6796 47.7357 19.8946 52.2477 3.08098 4.2098 60.1777 
0.41005 47.086 29.4798 14.5388 45.3673 55.4755 2.5421 11.1104 62.1851 
36.8556 31.4226 59.2634 38.7385 40.4341 44.1963 20.3344 38.9562 6.46804 
59.2575 33.8583 49.9562 45.7646 33.4498 60.1927 19.3595 54.5558 26.6218 
56.6026 32.4779 17.7191 59.3604 44.7286 20.263 60.4658 36.6963 25.1832 
[...]
POINT_DATA 7497
FIELD FieldData 4
haloID 1 7497 float
679582 677521 680462 677545 679619 676540 681422 674518 674539 
679642 674567 675540 677567 676579 676657 679604 675530 681442 
680488 676638 677601 676674 680500 680478 678449 677583 676664 
676590 680522 678452 676693 676683 675556 676508 681455 675575 
680505 679660 675571 675547 677520 675584 676701 675598 681486 
681469 676710 677611 674576 674596 675601 678469 677616 675606 
675594 680540 681476 677633 676713 677627 679675 678480 679690 
674608 680549 674582 675651 677644 680533 674614 675557 679696 
681394 679612 679693 679672 677643 676623 680535 681460 678488 
674611 674514 676615 680553 681499 679666 674618 674621 677638 
675670 676744 677648 680561 675588 678476 676732 675641 677656 
675679 675630 681493 679704 677621 675610 677652 679681 681517 
675665 676739 681512 680576 675685 677661 679714 675620 677666 
677683 680570 676760 676755 674625 675688 677677 681452 679650 
674631 674634 674629 678511 678506 676747 675689 681525 676558 
677687 681536 676633 676766 681526 681516 675658 677693 681530 
680563 681403 681522 678526 675589 676753 676764 675695 681507 
674520 677706 675694 681541 676783 678519 678531 680525 680509 
674528 678433 677717 677713 674640 675718 677707 679743 674636 
678541 678515 674650 675697 677719 677724 679726 680592 681543 
675704 680594 675647 678530 680539 679746 674487 679747 676598 
679756 680582 680600 674663 678536 678492 677725 676781 676772 
681560 681547 675701 675719 678540 681538 679710 679760 674654 
674667 677624 678545 675637 675634 674674 678549 678554 680482 
676723 676799 681461 675721 680617 675650 677721 681564 681440 
677732 680619 675576 676797 681562 676503 677614 679781 675608 
681565 674652 681545 674675 678524 680597 679751 676704 679773 
677699 675592 679661 681392 675741 679736 681555 677734 676678 
681557 680630 681426 674679 674680 675732 674681 676810 677500 
678573 679764 681579 679731 680585 674561 680498 676819 681550 
679719 676808 680604 674536 674686 674644 675744 679775 676818 
681581 676801 676805 676557 676831 676556 674684 679739 681496 
678583 681600 680612 674669 676832 680623 680625 674676 678552 
679790 679791 679789 681594 678577 681602 676815 677692 680629 
681605 675735 680632 678562 679687 679801 677599 678575 675716 
676635 681569 677576 676776 677488 681566 679792 679798 681601 
674689 674691 675515 679705 679788 676727 680635 676786 676804 
675645 676828 680639 679716 681438 681590 674585 678567 677744 
674693 676821 680627 681603 679794 680575 681613 678593 680634 
678590 675712 677743 678585 679814 681612 679458 679799 674694 
679603 681620 678589 678600 675622 681561 678471 681402 680641 
675756 674698 677755 678445 675724 680654 675765 677608 681399 
676837 678565 681616 674658 678580 681610 679737 675541 679784 
675754 676833 679815 678588 679816 675759 676586 677763 675746 
679655 681621 676838 679570 679821 676604 678579 680647 680651 
679778 681628 678607 680660 681617 681627 675766 675597 674645 
674700 678597 678462 677746 677748 676676 675633 675770 678602 
678586 678598 680610 675617 678604 679818 675736 679768 680661 
679457 676675 678495 680463 680650 677776 678608 675742 675777 
676848 677604 679817 680587 676845 676847 677766 674713 674695 
675784 676692 680664 676712 679810 674638 674717 678428 675771 
676553 677555 677781 680657 677702 677782 678595 675762 680637 
674702 679670 674701 680666 678556 680659 675653 675776 675729 
674599 675778 674729 675513 676853 681477 674682 678542 676849 
678605 679753 674737 681634 676628 675800 677662 678615 678627 
680667 674703 674697 677761 674716 677760 677775 674724 676852 
678610 680658 675787 678624 674557 674723 680675 679802 679822 
680662 678612 681642 681664 676616 680668 680670 674649 678628 
681630 678631 674731 675615 675801 675763 675752 677723 678617 
679834 679855 680689 677641 677767 680690 675715 675781 681663 
674734 678482 679860 681406 675583 678594 679620 679689 675510 
675802 678512 678614 677786 681665 675769 679853 676839 679864 
674556 674744 677603 678642 678645 678646 675809 675810 677587 
674521 681656 674740 676646 679795 679839 675525 675626 675818 
679664 678572 681572 681676 674722 680608 675773 675813 676875 
681662 681668 679837 679857 680564 681508 681660 674746 675817 
680680 676779 678647 679841 674751 675604 676854 678640 676601 
678648 680702 681669 675566 675803 675827 674718 681654 674743 
674748 675727 677640 677751 678637 679770 680524 677505 676868 
676889 678564 678502 679820 679828 674761 676864 678555 681586 
681677 676751 676861 674745 676879 676892 679882 677809 680640 
680704 682334 676740 676778 679836 676761 681678 675826 678432 
681680 681693 677792 675830 676774 678468 678666 680709 681673 
674655 674742 675804 676856 679849 674759 678667 678668 678680 
679888 678629 681446 675654 677814 677810 677811 681639 674664 
675743 676567 678635 681451 675834 681546 681607 682332 675559 
676872 681679 674519 674683 678639 679852 676883 677808 680697 
680705 676874 675723 680692 681695 674707 676824 676891 677632 
678687 679858 681685 681690 676517 676589 677738 677790 678688 
679891 679885 675851 676784 677789 677804 678686 675782 676826 
677807 678662 675838 676619 679843 679884 680722 681696 681715 
675837 680717 681551 675820 676545 676568 680716 681672 674732 
674757 674762 675823 681465 678618 681686 675623 679906 675551 
678678 678690 679902 681700 681713 674541 677668 680721 674769 
675852 676777 677635 677772 678643 679903 675516 675814 675849 
676905 678675 681706 681707 674770 675582 676870 677664 678658 
679894 680673 676841 677812 677820 677824 680723 675707 677803 
679806 679826 679874 674771 675812 677827 679905 674632 675853 
676651 676909 677729 680714 681658 674749 675624 675843 676527 
676865 678671 678689 678699 680715 681559 681596 678676 679734 
679883 680688 674714 675825 676647 676902 677731 677758 678578 
678692 679865 680696 681704 674758 677679 677773 677805 677825 
680710 681697 677818 678571 680744 677826 678670 678681 679776 
679808 681650 675872 677535 677797 677819 674785 677831 676893 
678691 679796 680736 674776 674781 675863 677817 679907 681670 
681714 674738 676562 680684 681708 675536 675847 678705 681710 
676705 676860 679904 675574 675599 677735 677823 679749 679901 
675807 677727 677816 677836 674809 675586 675869 676911 674778 
678702 681468 675558 675861 676539 676756 676903 677636 679908 
679937 680725 681577 682354 677783 680750 681515 681684 681691 
681709 674526 674780 675875 681732 674736 676596 677547 677832 
678521 679640 674768 674773 674786 674789 678696 679913 679934 
680638 680726 681651 679918 680645 674784 675562 679915 679919 
681694 676935 679717 680735 680755 675627 677696 677712 678726 
679686 674569 674715 675880 676714 676897 678651 680740 680743 
680765 675662 675842 676607 677676 679927 679933 680761 674777 
676873 676913 676921 678706 678707 680644 680766 674573 674772 
674792 675531 675854 676803 676878 676943 678712 679939 680734 
680746 674516 674791 675835 675859 675865 675899 675911 676881 
677837 677853 678634 678664 678685 678703 678710 679674 679692 
679948 680767 681725 681730 675882 676544 678493 678704 679924 
681688 675897 676900 676937 677549 677690 677846 677852 678747 
680749 680751 680775 674803 675871 676759 679914 681539 681722 
674774 675893 676910 677469 677493 677843 679920 681646 681721 
674766 676912 677830 678708 679866 679935 681737 681750 674620 
674800 677854 680529 680554 680720 680791 681723 674522 674668 
674799 675793 676708 676933 677470 678701 678713 680718 681423 
674787 675710 675749 675860 675868 675885 676748 676895 677639 
678736 679607 680497 680745 681635 674727 675789 676888 678721 
679863 679955 679966 681534 674635 675747 675917 675927 676939 
678725 680685 674802 675898 678684 678744 679956 679962 679968 
680686 680708 680772 682356 674579 674796 674822 675881 676916 
677865 678622 678714 679945 679957 679963 681745 674666 675913 
678700 678717 678743 678756 679783 679941 680776 681747 674783 
674790 674824 676927 676940 678546 678650 678764 679967 680456 
680562 680781 680784 681535 674806 674807 675780 675904 676637 
677774 679959 679964 681724 674574 678711 680693 681716 681754 
674829 675918 675919 676731 676955 677559 677582 679899 681731 
675783 675876 675889 675902 676938 678762 681758 681761 674726 
674788 675733 677868 678715 679657 679947 679949 680747 680787 
680793 681752 675901 675939 678609 678722 678748 679605 679617 
680470 681699 681759 681770 674841 675628 676499 677855 678661 
678745 679977 680798 680802 681753 674559 674835 675906 677718 
677777 678755 679774 679993 680792 676952 677877 678516 679976 
681441 681636 681757 678737 678746 678749 679926 679936 681764 
674494 674801 675687 675867 676700 676844 676862 676886 677620 
677674 677844 679931 679997 681609 681741 674589 674823 677845 
677880 677904 680015 680479 680797 681571 681703 674853 674857 
676899 676948 676963 677552 677588 677889 677903 678697 678751 
678770 680794 681570 681622 681718 681738 681751 674580 674598 
674725 674739 675892 675925 675936 676863 676922 677795 678738 
681762 682357 674813 675549 675643 675905 676572 676578 676926 
676979 678653 679958 681487 681760 681763 674805 675655 675750 
675794 676806 676924 676934 676965 677869 677892 678450 678765 
680756 680810 681567 675578 675829 675839 675870 675912 675924 
676515 676733 676957 677871 678481 678791 678792 679673 679978 
680459 680699 681582 674810 674838 674858 674867 675537 675921 
675922 676936 677859 677898 678674 680009 680742 681766 681771 
674586 674844 675539 675947 676636 676919 677887 678439 680804 
680820 681682 675923 676541 676656 676992 679994 680782 681424 
681649 674849 674859 674864 675896 675903 676929 676944 676967 
677483 677566 677882 677890 678757 678775 679960 680796 674602 
675636 675978 677495 677563 677581 679995 680026 680830 675934 
675935 675940 675952 675954 676510 676958 676964 677577 677888 
678789 678793 680521 680614 680806 681768 674507 674819 674860 
676634 676800 676956 676984 678787 678806 679877 680013 680508 
680764 681675 674868 677518 677821 678654 678739 678796 679643 
679875 680786 674696 674850 675981 677589 677698 678795 678811 
680618 680795 680817 681443 674880 675873 675975 676697 676989 
677710 677870 677893 678763 678771 680005 680774 680822 681719 
674797 674818 675553 675795 675890 675895 676584 676665 676742 
676971 677749 677840 677881 678510 678776 678788 678818 678830 
679730 679867 679892 680816 680827 681779 674840 675932 676717 
677822 677876 677929 678581 678656 679597 679644 679720 679876 
679917 680763 681765 681772 681797 681801 674837 675543 675611 
675696 675983 676738 676822 676980 677026 677828 677858 677933 
678621 678798 679984 680006 680677 681466 681473 681775 674639 
674651 674873 675517 675521 675786 675957 675987 676008 676752 
677838 680605 680777 680847 681812 674623 674830 674856 674894 
675568 675648 675886 675933 675989 676765 676990 677015 677564 
677879 677925 678570 678794 678802 679844 681457 681583 681593 
681749 681767 681787 681819 681827 674889 675522 675958 675964 
675971 676789 676998 677647 677851 677910 677924 678498 678619 
679759 681674 674578 674763 675587 675888 676546 677001 677014 
677592 677759 677894 677913 677920 678451 678649 678810 680040 
680583 680831 681435 681814 674861 674898 675751 675916 676006 
677919 678659 678797 678814 678815 679887 679950 679998 680020 
680022 680025 680671 680801 680834 674839 674845 674883 675625 
675985 676917 676974 677009 677019 677514 677878 678601 678773 
678809 679565 679577 679733 680835 680845 680850 681580 681785 
681810 682340 674690 674812 674877 674885 674910 675926 676986 
678576 678822 678844 679665 679777 680579 680655 680853 680875 
681556 681784 681789 674891 674911 675884 675979 675997 676017 
676681 677027 677849 678758 678820 679568 680031 680695 681689 
674642 674869 675590 675672 675988 676677 676966 676981 677657 
677747 677950 678752 678840 679669 679999 680002 680010 680057 
680601 680727 674879 674892 674895 675739 675961 676003 676792 
677018 677653 677860 677921 677946 678465 678784 678819 679707 
680050 680469 680483 680760 680888 681416 681794 681798 682341 
674643 674752 674893 674906 675846 675907 676002 676010 677885 
677914 677917 677931 678557 678729 678813 679623 679654 679823 
679953 680019 680029 680054 680545 680828 680860 680889 681734 
681813 674855 674912 675621 675700 675977 676906 676968 677030 
677681 677742 677927 677967 678470 678727 678786 678801 678816 
678817 679992 680034 680048 680759 680821 680852 680859 680873 
680896 681746 675833 675858 675950 676798 676842 676945 677008 
677020 677034 677051 678694 678720 678823 678848 680056 680803 
680823 680829 680877 680910 681459 681809 674577 674851 674905 
674908 674944 675982 677593 677607 677682 677960 678849 678850 
680008 680046 680049 680065 680703 680856 680898 681736 681791 
681823 674626 674628 674672 674907 674909 674946 674956 675511 
675791 676696 676718 676949 676959 676975 676991 677508 677918 
677936 678808 678824 678827 678847 678871 679727 679912 679983 
680819 680843 680883 674913 674926 675619 675669 675993 676000 
676033 676988 677043 677909 677930 677937 677944 678790 678826 
678858 678869 679897 680021 680027 680035 680825 681549 681712 
681774 681837 682353 674670 674923 674948 675532 675941 675992 
676007 676018 676032 676509 676790 676887 676901 677023 677036 
677037 677053 677651 677757 677891 677934 678455 678761 679622 
679785 680055 680069 680609 680706 680780 680814 680857 680863 
680927 681711 681728 681740 681818 681855 676015 676041 676065 
676660 676749 676987 677006 677007 677054 677896 677905 677958 
678431 678863 678881 678907 679567 680643 680899 681729 681834 
681842 681844 682345 674874 674884 674940 675745 675879 675953 
675984 676019 676735 676807 677039 677065 677768 677769 677779 
677874 677915 677951 678596 678821 678842 678886 679944 680045 
680066 680084 680849 680893 680914 680920 681501 674562 674817 
674935 674936 674943 674949 675631 675635 675962 676078 676530 
676605 676722 676950 676993 677004 677031 677055 677069 677071 
677076 677658 677895 677948 677956 677992 678734 678781 678825 
678873 678876 679735 680039 680454 680678 680868 680895 680900 
680905 681815 681838 674705 674852 674932 674933 674972 675554 
675844 675956 675967 675994 676001 676023 676025 676640 677044 
677073 677491 677834 677908 677943 677945 677972 678520 678551 
678742 678783 678883 678884 678898 679813 679886 679893 680532 
680558 680568 680788 680848 680870 680902 680903 681408 681531 
681652 681816 681828 681836 681858 681860 674517 674808 674821 
674890 674901 674916 674917 674942 675702 675972 676021 676511 
677048 677094 677106 677497 677938 677970 678865 678893 678922 
680062 680077 680769 680851 680901 680941 681404 681413 681599 
681790 681833 681835 681853 674750 674920 674924 674929 674939 
674989 675693 675828 675836 675929 676009 676012 676649 676667 
676726 676876 677016 677068 677083 677085 677788 677952 678867 
679628 680007 680011 680016 680038 680043 680068 680081 680530 
680738 680826 680887 680907 680911 680917 680932 680937 681449 
681504 681592 681692 681701 681755 681788 681877 674601 674866 
674931 674971 674982 675512 675609 676013 676024 676037 676042 
676061 676576 676898 677072 677465 677471 677883 677935 678472 
678560 678785 678812 678835 678872 679990 680028 680047 680059 
680063 680096 680098 680844 680897 680908 680926 681509 681554 
681778 681864 681872 682326 674673 674814 674930 674937 674947 
674960 674963 674967 675806 675857 675878 675937 675948 676011 
676040 676973 676983 677080 677569 677575 677949 677971 678732 
678846 678864 678870 678877 678897 678913 678929 679973 679996 
680053 680079 680909 681434 681589 674523 674820 674875 674896 
674919 674925 674962 674981 675519 675659 675931 675995 676076 
676585 676602 676629 676699 676750 676976 676985 677064 677067 
677099 677110 677550 677650 677663 677705 677800 677981 677986 
678000 678023 678652 678655 678723 678851 678853 678875 678889 
678911 679975 679989 680024 681826 681867 681871 681912 674958 
674985 675529 676036 676560 676599 677046 677047 677061 677625 
677631 677733 677847 677906 677922 677968 678630 678778 678800 
678855 678885 678891 678899 678904 678923 678930 678946 679678 
679846 679862 680033 680075 680105 680115 680758 680916 680953 
681735 681808 681831 681843 681879 681880 681889 682352 674827 
674921 674922 674976 674984 674990 675044 675632 675673 675711 
675720 676053 676055 676500 676518 676858 676880 676960 677042 
677113 677899 677953 677963 677975 678002 678012 678852 678861 
678866 678892 679845 679930 680091 680117 680140 680490 680832 
680846 680934 680974 681523 681811 681839 681876 681878 681890 
674542 674902 675000 675646 675831 675955 675996 676029 676035 
676062 676067 676068 676083 676606 676741 676942 677049 677050 
677066 677101 677119 677127 677667 677715 677739 677793 677875 
677991 678767 678856 678862 678868 678888 678896 678920 678933 
679627 679645 679750 679985 680004 680030 680074 680097 680113 
680515 680615 680930 680947 680968 681614 681802 681883 674566 
674886 674950 674954 674979 675012 675910 676020 676039 676087 
676729 676920 677038 677077 677088 677118 677928 678807 678874 
678879 678914 678918 678951 678966 679581 679702 679832 679943 
680092 680093 680100 680118 680133 680534 680728 680805 680842 
680867 680881 681401 681866 681891 681901 674591 674619 674934 
674955 674968 675534 675963 675980 676088 676091 676571 676820 
676835 676882 677089 677121 677507 677595 677600 678004 678561 
678766 678837 678854 678894 678908 678925 678926 678956 678961 
678986 679456 679667 680095 680106 680128 680138 680493 680691 
680959 680985 681807 681896 674983 675001 675040 675740 676085 
676141 676811 676823 677102 677784 677799 677856 677969 677982 
677999 678032 678050 678051 678061 678484 678903 678905 678919 
678945 678952 678955 679616 679688 679942 680067 680123 680127 
680135 680136 680139 680158 680580 680861 680862 680925 680936 
680986 680988 681398 681417 681573 681720 681799 681832 681900 
681935 681952 681967 674687 674918 674998 675002 675004 675005 
675006 675019 675034 675585 676014 676073 676108 676743 676773 
677040 677084 677092 677519 677623 677753 677841 677974 678005 
678006 678019 678029 678606 678735 678750 678912 678921 678943 
678944 679563 679625 679797 679900 680080 680099 680107 680134 
680145 680146 680167 680503 680543 680809 680969 680980 680992 
680996 681001 681439 681744 681852 681897 681902 681963 674529 
674760 674977 674997 675025 675047 675086 675570 675819 676064 
676071 676089 676094 676114 676502 676506 676610 677022 677035 
677082 677502 677509 677543 677990 678013 678035 678058 678441 
678478 678623 678831 678901 678902 678909 678928 678963 678969 
678972 678991 679629 679752 680064 680076 680162 680741 680800 
680866 680892 680913 680935 680940 680942 680944 680946 680966 
680990 681015 681492 681518 681626 681644 681756 681820 681906 
681917 681949 674515 674730 674900 674927 674961 674987 675013 
675059 675061 675805 675970 676016 676049 676092 676100 676103 
676107 676121 676142 676153 676159 676513 676908 677105 677109 
677125 677129 677134 677144 678022 678045 678046 678057 678066 
678753 678890 678939 678949 678953 678960 678962 678998 679838 
679881 679991 680071 680072 680085 680094 680104 680141 680144 
680541 680590 680603 680656 680921 680922 680945 680970 681618 
681655 681727 681861 681924 681964 681969 682320 674616 674721 
674994 675020 675048 675050 675960 676034 676111 676577 676962 
677062 677063 677081 677096 677149 677155 677720 677947 677988 
678007 678009 678010 678015 678832 678900 678975 679586 679648 