# vtk DataFile Version 5.1
vtk output
ASCII
DATASET POLYDATA
POINTS 2 float
1.11799 38.2693 13.6751 0.78735 37.314 13.3554 
POINT_DATA 2
FIELD FieldData 3
haloID 1 2 float
473788 473789 
time 1 2 float
76 76 
scale 1 2 float
0.76 0.76 
